
#(C) 2020 by FIZ Karlsruhe - Leibniz Institute for Information Infrastructure.  All rights reserved.
data_230104-ICSD
_database_code_ICSD 230104
_audit_creation_date 2019-02-01
_chemical_name_common Carbon
_chemical_formula_structural C
_chemical_formula_sum C1
_chemical_name_structure_type Graphite(2H)#C
_exptl_crystal_density_diffrn 2.26
_citation_title

;
Crystal structure evolution via operando neutron diffraction during long-term
cycling of a customized 5 V full Li-ion cylindrical cell LiNi0.5Mn1.5O4 vs.
graphite
;
loop_
_citation_id
_citation_journal_full
_citation_year
_citation_journal_volume
_citation_page_first
_citation_page_last
_citation_journal_id_ASTM
primary
'Journal of Materials Chemistry A: Materials for Energy and Sustainability' 2017 5 25574 25582 JMCAET
loop_
_citation_author_citation_id
_citation_author_name
primary 'Boulet-Roblin, Lucien'
primary 'Sheptyakov, Denis'
primary 'Borel, Philippe'
primary 'Tessier, Cecile'
primary 'Novak, Petr'
primary 'Villevieille, Claire'
_cell_length_a 2.46223(2)
_cell_length_b 2.46223(2)
_cell_length_c 6.7141(7)
_cell_angle_alpha 90.
_cell_angle_beta 90.
_cell_angle_gamma 120.
_cell_volume 35.25
_cell_formula_units_Z 4
_space_group_name_H-M_alt 'P 63/m m c'
_space_group_IT_number 194
loop_
_space_group_symop_id
_space_group_symop_operation_xyz
1 'x, x-y, -z+1/2'
2 '-x+y, y, -z+1/2'
3 '-y, -x, -z+1/2'
4 '-x+y, -x, -z+1/2'
5 '-y, x-y, -z+1/2'
6 'x, y, -z+1/2'
7 '-x, -x+y, z+1/2'
8 'x-y, -y, z+1/2'
9 'y, x, z+1/2'
10 'x-y, x, z+1/2'
11 'y, -x+y, z+1/2'
12 '-x, -y, z+1/2'
13 '-x, -x+y, -z'
14 'x-y, -y, -z'
15 'y, x, -z'
16 'x-y, x, -z'
17 'y, -x+y, -z'
18 '-x, -y, -z'
19 'x, x-y, z'
20 '-x+y, y, z'
21 '-y, -x, z'
22 '-x+y, -x, z'
23 '-y, x-y, z'
24 'x, y, z'
loop_
_atom_type_symbol
_atom_type_oxidation_number
C0+ 0
loop_
_atom_site_label
_atom_site_type_symbol
_atom_site_symmetry_multiplicity
_atom_site_Wyckoff_symbol
_atom_site_fract_x
_atom_site_fract_y
_atom_site_fract_z
_atom_site_B_iso_or_equiv
_atom_site_occupancy
C1 C0+ 2 b 0 0 0.25 0.45(3) 1.
C2 C0+ 2 c 0.3333 0.6667 0.25 0.45(3) 1.
#End of TTdata_230104-ICSD