
#(C) 2020 by FIZ Karlsruhe - Leibniz Institute for Information Infrastructure.  All rights reserved.
data_156190-ICSD
_database_code_ICSD 156190
_audit_creation_date 2007-08-01
_chemical_name_common 'Silicon carbide - 6H'
_chemical_formula_structural 'Si C'
_chemical_formula_sum 'C1 Si1'
_chemical_name_structure_type SiC(6H)
_chemical_name_mineral ''Moissanite 6H''
_exptl_crystal_density_diffrn 3.21
_citation_title

;
The 6H-(Si C) structure model: further refinement from SCXRD data from a
terrestrial moissanite
;
loop_
_citation_id
_citation_journal_full
_citation_year
_citation_journal_volume
_citation_page_first
_citation_page_last
_citation_journal_id_ASTM
primary 'American Mineralogist' 2007 92 403 407 AMMIAY
loop_
_citation_author_citation_id
_citation_author_name
primary 'Capitani, G.C.'
primary 'Di Pierro, S.'
primary 'Tempesta, G.'
_cell_length_a 3.0810(2)
_cell_length_b 3.0810(2)
_cell_length_c 15.1248(10)
_cell_angle_alpha 90.
_cell_angle_beta 90.
_cell_angle_gamma 120.
_cell_volume 124.34
_cell_formula_units_Z 6
_space_group_name_H-M_alt 'P 63 m c'
_space_group_IT_number 186
loop_
_space_group_symop_id
_space_group_symop_operation_xyz
1 '-x, -x+y, z+1/2'
2 'x-y, -y, z+1/2'
3 'y, x, z+1/2'
4 'x-y, x, z+1/2'
5 'y, -x+y, z+1/2'
6 '-x, -y, z+1/2'
7 'x, x-y, z'
8 '-x+y, y, z'
9 '-y, -x, z'
10 '-x+y, -x, z'
11 '-y, x-y, z'
12 'x, y, z'
loop_
_atom_type_symbol
_atom_type_oxidation_number
Si0+ 0
C0+ 0
loop_
_atom_site_label
_atom_site_type_symbol
_atom_site_symmetry_multiplicity
_atom_site_Wyckoff_symbol
_atom_site_fract_x
_atom_site_fract_y
_atom_site_fract_z
_atom_site_U_iso_or_equiv
_atom_site_occupancy
Si1 Si0+ 2 a 0 0 0 0.005(1) 1.
Si2 Si0+ 2 b 0.3333 0.6667 0.1664(1) 0.005(1) 1.
Si3 Si0+ 2 b 0.6667 0.3333 0.3329(1) 0.005(1) 1.
C1 C0+ 2 b 0.3333 0.6667 0.0412(2) 0.005(1) 1.
C2 C0+ 2 b 0.6667 0.3333 0.2080(2) 0.005(1) 1.
C3 C0+ 2 a 0 0 0.3746(2) 0.005(1) 1.
loop_
_atom_site_aniso_label
_atom_site_aniso_type_symbol
_atom_site_aniso_U_11
_atom_site_aniso_U_22
_atom_site_aniso_U_33
_atom_site_aniso_U_12
_atom_site_aniso_U_13
_atom_site_aniso_U_23
Si1 Si0+ 0.005(1) 0.005(1) 0.005(1) 0.002(1) 0. 0.
Si2 Si0+ 0.005(1) 0.005(1) 0.005(1) 0.002(1) 0. 0.
Si3 Si0+ 0.005(1) 0.005(1) 0.006(1) 0.002(1) 0. 0.
C1 C0+ 0.006(1) 0.006(1) 0.004(1) 0.003(1) 0. 0.
C2 C0+ 0.005(1) 0.005(1) 0.005(1) 0.002(1) 0. 0.
C3 C0+ 0.005(1) 0.005(1) 0.005(1) 0.003(1) 0. 0.
#End of TTdata_156190-ICSD